/*--------------------------------*- C++ -*----------------------------------*\
  =========                 |
  \\      /  F ield         | OpenFOAM: The Open Source CFD Toolbox
   \\    /   O peration     | Website:  https://openfoam.org
    \\  /    A nd           | Version:  7
     \\/     M anipulation  |
\*---------------------------------------------------------------------------*/
FoamFile
{
version     2.0;
format      ascii;
class       volVectorField;
location    "0";
object      dUdt;
}
// * * * * * * * * * * * * * * * * * * * * * * * * * * * * * * * * * * * * * //

dimensions      [0 1 -2 0 0 0 0];

internalField   nonuniform List<vector>
15768
(
(4.13777e-03 -3.20417e-06 -2.75908e-33)
(4.15295e-03 -2.19962e-06 -6.02045e-33)
(4.16692e-03 -9.58083e-07 -1.60869e-33)
(4.17500e-03 -8.88387e-07 1.43160e-33)
(4.18400e-03 -4.82200e-07 -1.19097e-33)
(4.18990e-03 -3.85215e-07 -2.65682e-32)
(4.19710e-03 -2.68220e-07 -5.49115e-38)
(4.20195e-03 -1.70502e-07 7.82737e-32)
(4.20817e-03 -1.81368e-07 5.24182e-32)
(4.21260e-03 -7.34950e-08 -4.16240e-34)
(4.21830e-03 -1.42955e-07 2.95100e-34)
(4.22252e-03 -2.97537e-08 -3.10825e-34)
(4.22795e-03 -1.27586e-07 -2.24558e-34)
(4.23217e-03 -1.74431e-08 -1.05623e-31)
(4.23747e-03 -1.24920e-07 -1.06271e-31)
(4.24177e-03 -2.13232e-08 -1.06507e-31)
(4.24702e-03 -1.29470e-07 -2.12861e-31)
(4.25145e-03 -3.23055e-08 -1.06636e-31)
(4.25670e-03 -1.35590e-07 0.00000e+00)
(4.26125e-03 -4.75043e-08 -3.26362e-34)
(4.26652e-03 -1.43394e-07 3.02430e-34)
(4.27123e-03 -6.42425e-08 -3.67320e-34)
(4.27655e-03 -1.51953e-07 -3.49460e-34)
(4.28140e-03 -8.10927e-08 4.09998e-34)
(4.28675e-03 -1.59217e-07 -3.96342e-34)
(4.29172e-03 -9.61130e-08 -4.51492e-34)
(4.29715e-03 -1.66016e-07 -4.41095e-34)
(4.30222e-03 -1.11094e-07 2.19751e-31)
(4.30770e-03 -1.73080e-07 -4.82775e-34)
(4.31290e-03 -1.24611e-07 -2.20737e-31)
(4.31840e-03 -1.79012e-07 0.00000e+00)
(4.32370e-03 -1.37021e-07 0.00000e+00)
(4.32927e-03 -1.84910e-07 2.22574e-31)
(4.33465e-03 -1.48577e-07 2.24576e-31)
(4.34025e-03 -1.90523e-07 2.25456e-31)
(4.34572e-03 -1.59404e-07 2.25135e-31)
(4.35137e-03 -1.96203e-07 -6.25090e-34)
(4.35693e-03 -1.69534e-07 6.54310e-34)
(4.36262e-03 -2.01482e-07 -6.55253e-34)
(4.36822e-03 -1.78874e-07 0.00000e+00)
(4.37397e-03 -2.07023e-07 2.30504e-31)
(4.37965e-03 -1.88258e-07 2.31495e-31)
(4.38545e-03 -2.12963e-07 -7.12747e-34)
(4.39120e-03 -1.97428e-07 7.35732e-34)
(4.39705e-03 -2.19206e-07 -7.41162e-34)
(4.40285e-03 -2.06637e-07 -7.62510e-34)
(4.40875e-03 -2.25848e-07 -7.68852e-34)
(4.41460e-03 -2.15775e-07 7.88732e-34)
(4.42055e-03 -2.32854e-07 -7.95977e-34)
(4.42648e-03 -2.25139e-07 -8.14873e-34)
(4.43250e-03 -2.40467e-07 8.23225e-34)
(4.43847e-03 -2.34748e-07 -8.41382e-34)
(4.44455e-03 -2.48567e-07 0.00000e+00)
(4.45060e-03 -2.44628e-07 0.00000e+00)
(4.45672e-03 -2.57290e-07 0.00000e+00)
(4.46285e-03 -2.54972e-07 -8.93220e-34)
(4.46902e-03 -2.66675e-07 -9.02570e-34)
(4.47523e-03 -2.65600e-07 9.17297e-34)
(4.48145e-03 -2.76237e-07 -9.25980e-34)
(4.48770e-03 -2.75960e-07 5.05840e-31)
(4.49400e-03 -2.85635e-07 5.10832e-31)
(4.50030e-03 -2.86007e-07 9.54702e-34)
(4.50665e-03 -2.94760e-07 0.00000e+00)
(4.51300e-03 -2.95405e-07 -5.19798e-31)
(4.51937e-03 -3.03135e-07 -5.23353e-31)
(4.52575e-03 -3.03765e-07 -9.59872e-34)
(4.53215e-03 -3.10335e-07 -9.51952e-34)
(4.53855e-03 -3.10305e-07 -5.33987e-31)
(4.54495e-03 -3.15022e-07 -5.40032e-31)
(4.55133e-03 -3.13485e-07 5.42533e-31)
(4.55770e-03 -3.15797e-07 5.48795e-31)
(4.56400e-03 -3.12013e-07 5.51728e-31)
(4.57027e-03 -3.11090e-07 5.56587e-31)
(4.57647e-03 -3.03852e-07 5.63090e-31)
(4.58258e-03 -2.98477e-07 5.66887e-31)
(4.58858e-03 -2.86410e-07 0.00000e+00)
(4.59445e-03 -2.75067e-07 -4.59295e-34)
(4.60013e-03 -2.56137e-07 -5.83892e-31)
(4.60560e-03 -2.36436e-07 -5.90347e-31)
(4.61082e-03 -2.07930e-07 -1.03412e-35)
(4.61577e-03 -1.77016e-07 -1.95268e-34)
(4.62035e-03 -1.35720e-07 -6.08538e-31)
(4.62452e-03 -8.98987e-08 -6.14810e-31)
(4.62820e-03 -3.15177e-08 -1.02954e-33)
(4.63132e-03 3.40087e-08 1.39825e-33)
(4.63377e-03 1.14822e-07 6.35558e-31)
(4.63547e-03 2.06013e-07 6.44492e-31)
(4.63630e-03 3.15952e-07 -2.85657e-33)
(4.63610e-03 4.40382e-07 3.48645e-33)
(4.63477e-03 5.87980e-07 -6.65052e-31)
(4.63210e-03 7.55055e-07 -6.71297e-31)
(4.62792e-03 9.50470e-07 5.92410e-33)
(4.62205e-03 1.17117e-06 6.82005e-31)
(4.61422e-03 1.42632e-06 6.69837e-31)
(4.60422e-03 1.71356e-06 6.88920e-31)
(4.59178e-03 2.04202e-06 6.90282e-31)
(4.57655e-03 2.40946e-06 0.00000e+00)
(4.55827e-03 2.82432e-06 0.00000e+00)
(4.53660e-03 3.28382e-06 0.00000e+00)
(4.51118e-03 3.79483e-06 1.82690e-32)
(4.48165e-03 4.35237e-06 -2.05813e-32)
(4.44762e-03 4.95955e-06 2.30777e-32)
(4.40882e-03 5.60288e-06 -2.57645e-32)
(4.36498e-03 6.25550e-06 -2.86313e-32)
(4.31572e-03 6.89825e-06 -1.06734e-30)
(4.25992e-03 7.74895e-06 -1.96475e-30)
(4.19820e-03 9.61985e-06 -6.80167e-31)
(4.15880e-03 5.48115e-06 0.00000e+00)
(1.23828e-02 -1.92138e-05 -6.57682e-33)
(1.24213e-02 -1.32355e-05 -1.30214e-33)
(1.24456e-02 -1.03551e-05 -3.40067e-33)
(1.24727e-02 -7.00283e-06 3.25955e-33)
(1.24903e-02 -5.47582e-06 -2.84687e-33)
(1.25124e-02 -3.90802e-06 -2.30898e-33)
(1.25273e-02 -3.01502e-06 3.74908e-33)
(1.25464e-02 -2.32169e-06 -1.33888e-31)
(1.25597e-02 -1.75819e-06 -1.32174e-31)
(1.25770e-02 -1.52052e-06 -1.04200e-33)
(1.25897e-02 -1.14017e-06 -2.71845e-31)
(1.26060e-02 -1.15161e-06 -2.72395e-31)
(1.26185e-02 -8.84332e-07 6.37772e-34)
(1.26343e-02 -1.02843e-06 2.73260e-31)
(1.26469e-02 -8.35262e-07 2.72302e-31)
(1.26625e-02 -1.04634e-06 2.72790e-31)
(1.26753e-02 -9.02162e-07 1.96062e-36)
(1.26908e-02 -1.14169e-06 -2.73072e-31)
(1.27040e-02 -1.03188e-06 -5.48478e-31)
(1.27196e-02 -1.27688e-06 -5.52077e-31)
(1.27332e-02 -1.19140e-06 9.27772e-34)
(1.27488e-02 -1.42841e-06 5.52857e-31)
(1.27629e-02 -1.36035e-06 5.52212e-31)
(1.27786e-02 -1.58218e-06 1.08286e-33)
(1.27930e-02 -1.52719e-06 -1.15489e-33)
(1.28089e-02 -1.73094e-06 -1.19661e-33)
(1.28236e-02 -1.68674e-06 5.60230e-31)
(1.28396e-02 -1.87159e-06 1.12524e-30)
(1.28547e-02 -1.83605e-06 -1.35962e-33)
(1.28708e-02 -2.00246e-06 2.68077e-33)
(1.28862e-02 -1.97464e-06 5.68555e-31)
(1.29025e-02 -2.12426e-06 -5.67600e-31)
(1.29181e-02 -2.10366e-06 -5.74003e-31)
(1.29345e-02 -2.23820e-06 4.64773e-33)
(1.29504e-02 -2.22426e-06 5.81407e-31)
(1.29669e-02 -2.34570e-06 5.77130e-31)
(1.29830e-02 -2.33831e-06 1.16028e-30)
(1.29996e-02 -2.44856e-06 1.77063e-33)
(1.30160e-02 -2.44740e-06 -1.17292e-30)
(1.30327e-02 -2.54830e-06 0.00000e+00)
(1.30492e-02 -2.55345e-06 0.00000e+00)
(1.30661e-02 -2.64685e-06 0.00000e+00)
(1.30828e-02 -2.65815e-06 1.18831e-30)
(1.30998e-02 -2.74552e-06 1.19724e-30)
(1.31167e-02 -2.76282e-06 -2.00935e-33)
(1.31338e-02 -2.84552e-06 1.20344e-30)
(1.31508e-02 -2.86857e-06 2.41937e-30)
(1.31681e-02 -2.94770e-06 2.12907e-33)
(1.31854e-02 -2.97627e-06 -1.22370e-30)
(1.32028e-02 -3.05277e-06 -2.17453e-33)
(1.32201e-02 -3.08642e-06 2.20981e-33)
(1.32377e-02 -3.16073e-06 -1.24095e-30)
(1.32553e-02 -3.19847e-06 4.39530e-33)
(1.32730e-02 -3.27043e-06 1.25092e-30)
(1.32908e-02 -3.31110e-06 1.25725e-30)
(1.33086e-02 -3.38032e-06 2.52530e-30)
(1.33265e-02 -3.42248e-06 1.26821e-30)
(1.33446e-02 -3.48807e-06 -1.27515e-30)
(1.33626e-02 -3.52972e-06 -2.47842e-33)
(1.33808e-02 -3.59012e-06 1.29451e-30)
(1.33989e-02 -3.62882e-06 2.49474e-33)
(1.34172e-02 -3.68183e-06 2.50800e-33)
(1.34355e-02 -3.71410e-06 -1.31558e-30)
(1.34540e-02 -3.75600e-06 -2.64785e-30)
(1.34723e-02 -3.77675e-06 -2.66517e-30)
(1.34907e-02 -3.80200e-06 -1.34412e-30)
(1.35092e-02 -3.80428e-06 -2.47424e-33)
(1.35276e-02 -3.80515e-06 2.43734e-33)
(1.35459e-02 -3.77962e-06 -1.36869e-30)
(1.35642e-02 -3.74595e-06 -1.38378e-30)
(1.35824e-02 -3.68083e-06 2.78682e-30)
(1.36005e-02 -3.59947e-06 2.80495e-30)
(1.36183e-02 -3.47923e-06 -1.97887e-33)
(1.36359e-02 -3.33245e-06 2.85600e-30)
(1.36533e-02 -3.13645e-06 2.87747e-30)
(1.36703e-02 -2.90092e-06 2.90472e-30)
(1.36867e-02 -2.60245e-06 5.86145e-30)
(1.37027e-02 -2.24792e-06 2.95930e-30)
(1.37180e-02 -1.81254e-06 -2.98690e-30)
(1.37325e-02 -1.30017e-06 -3.01517e-30)
(1.37462e-02 -6.83912e-07 -7.29412e-34)
(1.37587e-02 3.57740e-08 -3.07315e-30)
(1.37700e-02 8.88617e-07 -3.10262e-30)
(1.37798e-02 1.87803e-06 -2.98247e-33)
(1.37879e-02 3.03728e-06 3.96895e-33)
(1.37940e-02 4.37422e-06 3.18512e-30)
(1.37979e-02 5.92635e-06 6.35367e-33)
(1.37992e-02 7.70670e-06 -3.26067e-30)
(1.37974e-02 9.75772e-06 9.52255e-33)
(1.37923e-02 1.20982e-05 -1.14116e-32)
(1.37833e-02 1.47757e-05 -1.35455e-32)
(1.37700e-02 1.78146e-05 1.59491e-32)
(1.37516e-02 2.12671e-05 1.86476e-32)
(1.37276e-02 2.51630e-05 -2.16681e-32)
(1.36974e-02 2.95578e-05 2.50378e-32)
(1.36601e-02 3.44837e-05 2.87850e-32)
(1.36149e-02 3.99952e-05 0.00000e+00)
(1.35609e-02 4.61215e-05 -3.30207e-30)
(1.34972e-02 5.29070e-05 4.13832e-34)
(1.34228e-02 6.03650e-05 3.24180e-30)
(1.33368e-02 6.85137e-05 -5.40283e-32)
(1.32380e-02 7.73242e-05 3.07330e-30)
(1.31255e-02 8.67437e-05 -6.81178e-32)
(1.29986e-02 9.66652e-05 -2.83637e-30)
(1.28560e-02 1.07063e-04 8.24152e-32)
(1.26952e-02 1.17558e-04 8.87412e-32)
(1.25168e-02 1.25642e-04 -9.53575e-31)
(1.23872e-02 1.23793e-04 -7.34760e-30)
(2.06129e-02 -3.14667e-05 0.00000e+00)
(2.06494e-02 -2.85145e-05 -5.73802e-32)
(2.06939e-02 -2.10085e-05 -5.97027e-32)
(2.07215e-02 -1.70624e-05 3.35590e-33)
(2.07585e-02 -1.25973e-05 0.00000e+00)
(2.07828e-02 -9.98415e-06 3.11885e-33)
(2.08153e-02 -7.59732e-06 2.72885e-33)
(2.08372e-02 -5.96575e-06 0.00000e+00)
(2.08666e-02 -4.82682e-06 1.98570e-33)
(2.08874e-02 -3.81707e-06 2.71422e-31)
(2.09148e-02 -3.41212e-06 -1.48477e-33)
(2.09352e-02 -2.79232e-06 -2.71367e-31)
(2.09615e-02 -2.81447e-06 2.38675e-33)
(2.09819e-02 -2.44423e-06 1.13737e-33)
(2.10077e-02 -2.70452e-06 0.00000e+00)
(2.10285e-02 -2.49331e-06 -5.45917e-31)
(2.10540e-02 -2.87962e-06 -5.48130e-31)
(2.10754e-02 -2.76820e-06 2.60540e-33)
(2.11009e-02 -3.20970e-06 2.69758e-33)
(2.11230e-02 -3.16142e-06 0.00000e+00)
(2.11485e-02 -3.61530e-06 -5.51312e-31)
(2.11711e-02 -3.60505e-06 -5.55702e-31)
(2.11968e-02 -4.04597e-06 -1.17969e-34)
(2.12201e-02 -4.05832e-06 1.80476e-33)
(2.12460e-02 -4.47338e-06 -1.88883e-33)
(2.12699e-02 -4.49940e-06 2.00542e-33)
(2.12960e-02 -4.88225e-06 -1.12131e-30)
(2.13203e-02 -4.91640e-06 -1.12901e-30)
(2.13466e-02 -5.26552e-06 0.00000e+00)
(2.13715e-02 -5.30520e-06 2.49545e-33)
(2.13980e-02 -5.62220e-06 -1.13725e-30)
(2.14233e-02 -5.66682e-06 -1.13833e-30)
(2.14500e-02 -5.95455e-06 0.00000e+00)
(2.14757e-02 -6.00387e-06 -1.14334e-30)
(2.15026e-02 -6.26590e-06 -2.30612e-30)
(2.15287e-02 -6.32060e-06 2.84597e-33)
(2.15558e-02 -6.56092e-06 1.16471e-30)
(2.15822e-02 -6.62175e-06 1.16313e-30)
(2.16094e-02 -6.84410e-06 1.17381e-30)
(2.16361e-02 -6.91197e-06 0.00000e+00)
(2.16636e-02 -7.12028e-06 0.00000e+00)
(2.16906e-02 -7.19620e-06 3.27925e-33)
(2.17182e-02 -7.39373e-06 1.18962e-30)
(2.17455e-02 -7.47820e-06 3.58702e-30)
(2.17734e-02 -7.66767e-06 2.39917e-30)
(2.18010e-02 -7.76097e-06 2.40923e-30)
(2.18290e-02 -7.94463e-06 2.42329e-30)
(2.18569e-02 -8.04670e-06 -3.63697e-33)
(2.18851e-02 -8.22627e-06 3.68852e-33)
(2.19132e-02 -8.33670e-06 2.45578e-30)
(2.19417e-02 -8.51315e-06 4.92685e-30)
(2.19701e-02 -8.63068e-06 9.08937e-35)
(2.19987e-02 -8.80368e-06 -2.47900e-30)
(2.20273e-02 -8.92588e-06 -3.95522e-33)
(2.20563e-02 -9.09400e-06 4.00200e-33)
(2.20851e-02 -9.21755e-06 -2.52455e-30)
(2.21143e-02 -9.37812e-06 -2.53395e-30)
(2.21434e-02 -9.49848e-06 2.55170e-30)
(2.21727e-02 -9.64715e-06 2.56598e-30)
(2.22020e-02 -9.75790e-06 2.58887e-30)
(2.22315e-02 -9.88822e-06 2.59542e-30)
(2.22610e-02 -9.98057e-06 0.00000e+00)
(2.22907e-02 -1.00829e-05 2.63060e-30)
(2.23203e-02 -1.01444e-05 5.28142e-30)
(2.23500e-02 -1.02048e-05 5.32360e-30)
(2.23797e-02 -1.02183e-05 2.68150e-30)
(2.24093e-02 -1.02175e-05 -3.96577e-33)
(2.24389e-02 -1.01601e-05 -2.71087e-30)
(2.24684e-02 -1.00723e-05 7.46520e-33)
(2.24978e-02 -9.91372e-06 2.75490e-30)
(2.25269e-02 -9.70495e-06 0.00000e+00)
(2.25558e-02 -9.40587e-06 0.00000e+00)
(2.25843e-02 -9.03127e-06 2.71047e-33)
(2.26124e-02 -8.53985e-06 0.00000e+00)
(2.26400e-02 -7.94050e-06 -2.86623e-30)
(2.26669e-02 -7.18940e-06 -2.88938e-30)
(2.26931e-02 -6.28920e-06 -6.55180e-34)
(2.27183e-02 -5.19188e-06 -9.96390e-35)
(2.27424e-02 -3.89302e-06 2.96642e-30)
(2.27651e-02 -2.33883e-06 2.99610e-30)
(2.27864e-02 -5.16780e-07 -3.17485e-33)
(2.28058e-02 1.63438e-06 -4.52800e-33)
(2.28231e-02 4.13657e-06 0.00000e+00)
(2.28379e-02 7.06035e-06 0.00000e+00)
(2.28500e-02 1.04386e-05 0.00000e+00)
(2.28588e-02 1.43528e-05 -2.41544e-32)
(2.28638e-02 1.88488e-05 6.36045e-30)
(2.28646e-02 2.40208e-05 6.40667e-30)
(2.28605e-02 2.99288e-05 -2.10330e-32)
(2.28509e-02 3.66813e-05 -6.48537e-30)
(2.28349e-02 4.43530e-05 -6.51465e-30)
(2.28118e-02 5.30660e-05 0.00000e+00)
(2.27807e-02 6.29095e-05 -6.54605e-30)
(2.27406e-02 7.40172e-05 -6.54265e-30)
(2.26903e-02 8.64882e-05 -6.57603e-30)
(2.26287e-02 1.00461e-04 -6.48662e-30)
(2.25544e-02 1.16034e-04 6.42827e-30)
(2.24660e-02 1.33337e-04 6.41775e-30)
(2.23622e-02 1.52447e-04 0.00000e+00)
(2.22412e-02 1.73453e-04 -9.51450e-32)
(2.21017e-02 1.96372e-04 -5.90180e-30)
(2.19417e-02 2.21199e-04 -5.79362e-30)
(2.17599e-02 2.47808e-04 5.53857e-30)
(2.15546e-02 2.76025e-04 5.14388e-30)
(2.13239e-02 3.05682e-04 0.00000e+00)
(2.10634e-02 3.36168e-04 1.72394e-31)
(2.07719e-02 3.64057e-04 -9.62465e-32)
(2.05539e-02 3.78410e-04 -1.79116e-29)
(2.88070e-02 -4.82777e-05 -1.83298e-32)
(2.88697e-02 -3.97105e-05 -3.77100e-32)
(2.89053e-02 -3.45037e-05 2.24867e-33)
(2.89552e-02 -2.65973e-05 -1.11921e-33)
(2.89872e-02 -2.18075e-05 0.00000e+00)
(2.90325e-02 -1.67658e-05 3.19580e-33)
(2.90623e-02 -1.34521e-05 -2.66990e-31)
(2.91035e-02 -1.06560e-05 -2.64410e-31)
(2.91320e-02 -8.56460e-06 -2.26358e-33)
(2.91705e-02 -7.24177e-06 2.93837e-33)
(2.91982e-02 -5.99152e-06 5.41007e-31)
(2.92350e-02 -5.58992e-06 9.95930e-36)
(2.92627e-02 -4.89527e-06 -5.41325e-31)
(2.92985e-02 -5.04557e-06 5.47407e-31)
(2.93270e-02 -4.71010e-06 1.59685e-33)
(2.93622e-02 -5.17592e-06 5.48107e-31)
(2.93912e-02 -5.06542e-06 2.19472e-30)
(2.94262e-02 -5.69580e-06 1.10149e-30)
(2.94562e-02 -5.72200e-06 -1.09803e-30)
(2.94912e-02 -6.42070e-06 -2.85525e-35)
(2.95220e-02 -6.52560e-06 3.41575e-33)
(2.95573e-02 -7.23402e-06 -1.10769e-30)
(2.95888e-02 -7.38020e-06 3.86298e-33)
(2.96242e-02 -8.06432e-06 1.42315e-33)
(2.96567e-02 -8.22957e-06 1.29414e-33)
(2.96922e-02 -8.87177e-06 4.52410e-33)
(2.97255e-02 -9.04297e-06 1.12830e-30)
(2.97615e-02 -9.63537e-06 1.12685e-30)
(2.97952e-02 -9.80617e-06 3.42403e-33)
(2.98315e-02 -1.03482e-05 -1.13006e-30)
(2.98660e-02 -1.05165e-05 -1.13345e-30)
(2.99022e-02 -1.10111e-05 -2.28176e-30)
(2.99372e-02 -1.11771e-05 -2.28539e-30)
(2.99740e-02 -1.16293e-05 -2.29097e-30)
(3.00095e-02 -1.17947e-05 1.93238e-33)
(3.00465e-02 -1.22106e-05 2.31180e-30)
(3.00825e-02 -1.23778e-05 -2.31987e-30)
(3.01195e-02 -1.27639e-05 -2.32896e-30)
(3.01560e-02 -1.29355e-05 7.26262e-33)
(3.01932e-02 -1.32980e-05 0.00000e+00)
(3.02302e-02 -1.34765e-05 2.36322e-30)
(3.02677e-02 -1.38213e-05 2.37555e-30)
(3.03050e-02 -1.40089e-05 -2.37203e-30)
(3.03427e-02 -1.43407e-05 -2.38429e-30)
(3.03803e-02 -1.45388e-05 5.37267e-33)
(3.04185e-02 -1.48616e-05 5.45040e-33)
(3.04563e-02 -1.50708e-05 -2.64282e-33)
(3.04947e-02 -1.53874e-05 2.67653e-33)
(3.05330e-02 -1.56076e-05 8.65305e-33)
(3.05717e-02 -1.59196e-05 8.75427e-33)
(3.06103e-02 -1.61495e-05 -5.82835e-33)
(3.06492e-02 -1.64568e-05 2.47146e-30)
(3.06880e-02 -1.66932e-05 2.49237e-30)
(3.07273e-02 -1.69934e-05 2.88250e-33)
(3.07665e-02 -1.72309e-05 3.17140e-33)
(3.08060e-02 -1.75194e-05 6.12407e-33)
(3.08455e-02 -1.77504e-05 9.37255e-33)
(3.08852e-02 -1.80193e-05 6.17822e-33)
(3.09250e-02 -1.82329e-05 2.55462e-30)
(3.09647e-02 -1.84708e-05 5.15967e-30)
(3.10048e-02 -1.86519e-05 2.59595e-30)
(3.10450e-02 -1.88419e-05 6.08025e-33)
(3.10850e-02 -1.89691e-05 5.23732e-30)
(3.11253e-02 -1.90874e-05 5.27525e-30)
(3.11655e-02 -1.91314e-05 -5.30220e-30)
(3.12057e-02 -1.91446e-05 -5.33147e-30)
(3.12457e-02 -1.90661e-05 -5.38342e-30)
(3.12858e-02 -1.89296e-05 -1.08172e-29)
(3.13255e-02 -1.86764e-05 6.82037e-33)
(3.13650e-02 -1.83312e-05 5.49432e-30)
(3.14043e-02 -1.78348e-05 -3.73887e-33)
(3.14432e-02 -1.72029e-05 5.57465e-30)
(3.14815e-02 -1.63737e-05 5.61822e-30)
(3.15192e-02 -1.53532e-05 -5.65640e-30)
(3.15560e-02 -1.40746e-05 -5.70327e-30)
(3.15920e-02 -1.25334e-05 5.74835e-30)
(3.16270e-02 -1.06553e-05 1.15934e-29)
(3.16602e-02 -8.42405e-06 5.83945e-30)
(3.16922e-02 -5.75487e-06 2.74777e-33)
(3.17222e-02 -2.61750e-06 -3.76060e-33)
(3.17503e-02 1.08596e-06 -6.00555e-30)
(3.17755e-02 5.40205e-06 -6.05920e-30)
(3.17980e-02 1.04450e-05 1.51492e-32)
(3.18170e-02 1.62804e-05 6.11972e-30)
(3.18320e-02 2.30422e-05 6.16267e-30)
(3.18427e-02 3.08182e-05 -6.26922e-30)
(3.18483e-02 3.97653e-05 3.15400e-32)
(3.18477e-02 4.99962e-05 6.27072e-30)
(3.18408e-02 6.16937e-05 -6.36110e-30)
(3.18263e-02 7.49985e-05 -6.41487e-30)
(3.18030e-02 9.01192e-05 0.00000e+00)
(3.17702e-02 1.07224e-04 -6.60627e-32)
(3.17265e-02 1.26546e-04 -6.38640e-30)
(3.16705e-02 1.48276e-04 -6.45353e-30)
(3.16010e-02 1.72667e-04 -4.85143e-32)
(3.15160e-02 1.99919e-04 -1.09965e-31)
(3.14140e-02 2.30285e-04 -6.32437e-30)
(3.12933e-02 2.63952e-04 -6.02557e-30)
(3.11517e-02 3.01135e-04 1.55414e-31)
(3.09873e-02 3.41960e-04 -2.59880e-31)
(3.07975e-02 3.86547e-04 1.92802e-31)
(3.05805e-02 4.34882e-04 -3.20660e-31)
(3.03337e-02 4.86872e-04 3.55137e-31)
(3.00555e-02 5.42260e-04 -2.62570e-31)
(2.97422e-02 6.00880e-04 -4.63147e-30)
(2.93873e-02 6.62157e-04 -7.10160e-30)
(2.89880e-02 7.22802e-04 2.39369e-30)
(2.86875e-02 7.66672e-04 -1.10767e-29)
(3.70180e-02 -5.52462e-05 0.00000e+00)
(3.70625e-02 -5.32382e-05 -1.72203e-32)
(3.71237e-02 -4.34253e-05 -1.20095e-31)
(3.71602e-02 -3.73277e-05 -1.37804e-31)
(3.72165e-02 -2.94060e-05 -2.58670e-31)
(3.72525e-02 -2.42142e-05 -5.53220e-34)
(3.73050e-02 -1.91582e-05 2.64805e-31)
(3.73400e-02 -1.55972e-05 5.34675e-31)
(3.73892e-02 -1.28300e-05 5.36145e-31)
(3.74240e-02 -1.06286e-05 1.05500e-33)
(3.74707e-02 -9.43043e-06 7.10058e-34)
(3.75055e-02 -8.20070e-06 5.42645e-31)
(3.75510e-02 -8.01057e-06 5.45005e-31)
(3.75862e-02 -7.43530e-06 1.09782e-33)
(3.76310e-02 -7.85777e-06 1.84573e-33)
(3.76670e-02 -7.70345e-06 0.00000e+00)
(3.77115e-02 -8.47360e-06 1.09811e-30)
(3.77485e-02 -8.57787e-06 1.10150e-30)
(3.77930e-02 -9.52110e-06 1.35044e-33)
(3.78310e-02 -9.77440e-06 1.30260e-33)
(3.78755e-02 -1.07798e-05 1.58201e-33)
(3.79147e-02 -1.11102e-05 1.11218e-30)
(3.79595e-02 -1.21096e-05 2.22527e-30)
(3.79997e-02 -1.24723e-05 2.22887e-30)
(3.80445e-02 -1.34277e-05 1.12145e-30)
(3.80857e-02 -1.37964e-05 2.27293e-33)
(3.81310e-02 -1.46882e-05 2.35925e-33)
(3.81730e-02 -1.50488e-05 0.00000e+00)
(3.82185e-02 -1.58704e-05 4.98692e-33)
(3.82615e-02 -1.62174e-05 2.26940e-30)
(3.83073e-02 -1.69702e-05 2.27677e-30)
(3.83507e-02 -1.73031e-05 0.00000e+00)
(3.83967e-02 -1.79927e-05 6.03348e-33)
(3.84410e-02 -1.83141e-05 -2.28980e-30)
(3.84872e-02 -1.89486e-05 -2.30089e-30)
(3.85322e-02 -1.92627e-05 2.31192e-30)
(3.85788e-02 -1.98513e-05 4.64127e-30)
(3.86242e-02 -2.01628e-05 3.83558e-33)
(3.86710e-02 -2.07147e-05 -2.33424e-30)
(3.87170e-02 -2.10285e-05 0.00000e+00)
(3.87640e-02 -2.15524e-05 -2.35193e-30)
(3.88102e-02 -2.18729e-05 -4.72620e-30)
(3.88577e-02 -2.23765e-05 -2.37050e-30)
(3.89045e-02 -2.27068e-05 2.38384e-30)
(3.89523e-02 -2.31962e-05 2.39791e-30)
(3.89995e-02 -2.35385e-05 -2.39888e-30)
(3.90475e-02 -2.40182e-05 -2.41775e-30)
(3.90950e-02 -2.43730e-05 2.42778e-30)
(3.91432e-02 -2.48457e-05 7.30620e-30)
(3.91912e-02 -2.52120e-05 4.89397e-30)
(3.92397e-02 -2.56780e-05 4.90648e-30)
(3.92883e-02 -2.60520e-05 4.93382e-30)
(3.93372e-02 -2.65085e-05 4.62585e-33)
(3.93860e-02 -2.68837e-05 -4.97522e-30)
(3.94350e-02 -2.73242e-05 -5.00455e-30)
(3.94842e-02 -2.76898e-05 5.03365e-30)
(3.95337e-02 -2.81032e-05 5.06420e-30)
(3.95830e-02 -2.84438e-05 4.65395e-33)
(3.96327e-02 -2.88135e-05 5.10360e-30)
(3.96825e-02 -2.91072e-05 5.02763e-33)
(3.97323e-02 -2.94092e-05 -5.16055e-30)
(3.97822e-02 -2.96258e-05 4.36710e-33)
(3.98322e-02 -2.98255e-05 -4.23365e-33)
(3.98822e-02 -2.99230e-05 4.07218e-33)
(3.99320e-02 -2.99727e-05 5.28710e-30)
(3.99820e-02 -2.98950e-05 4.13565e-33)
(4.00317e-02 -2.97307e-05 -5.35890e-30)
(4.00812e-02 -2.94022e-05 5.39375e-30)
(4.01305e-02 -2.89383e-05 3.08532e-33)
(4.01795e-02 -2.82605e-05 -5.46373e-30)
(4.02280e-02 -2.73845e-05 5.50253e-30)
(4.02760e-02 -2.62277e-05 5.54505e-30)
(4.03232e-02 -2.47926e-05 -5.58435e-30)
(4.03695e-02 -2.29886e-05 -1.12535e-29)
(4.04147e-02 -2.08033e-05 -5.66920e-30)
(4.04590e-02 -1.81351e-05 -3.07293e-33)
(4.05015e-02 -1.49545e-05 5.75640e-30)
(4.05425e-02 -1.11449e-05 5.79555e-30)
(4.05812e-02 -6.65640e-06 7.76672e-33)
(4.06178e-02 -1.35311e-06 -9.78687e-33)
(4.06515e-02 4.83838e-06 -1.20765e-32)
(4.06820e-02 1.20781e-05 -5.99585e-30)
(4.07085e-02 2.04673e-05 -1.20329e-29)
(4.07310e-02 3.01950e-05 -6.08865e-30)
(4.07485e-02 4.13952e-05 6.08342e-30)
(4.07605e-02 5.42908e-05 6.08797e-30)
(4.07657e-02 6.90527e-05 3.31990e-32)
(4.07640e-02 8.59432e-05 -3.83153e-32)
(4.07537e-02 1.05175e-04 0.00000e+00)
(4.07340e-02 1.27052e-04 -5.03362e-32)
(4.07037e-02 1.51830e-04 0.00000e+00)
(4.06613e-02 1.79853e-04 -1.30460e-31)
(4.06055e-02 2.11420e-04 -7.38970e-32)
(4.05345e-02 2.46911e-04 -1.66176e-31)
(4.04467e-02 2.86652e-04 0.00000e+00)
(4.03400e-02 3.31040e-04 -1.23688e-29)
(4.02125e-02 3.80410e-04 -1.22015e-29)
(4.00617e-02 4.35142e-04 -1.30078e-31)
(3.98852e-02 4.95528e-04 -2.75405e-34)
(3.96805e-02 5.61862e-04 -3.19820e-31)
(3.94450e-02 6.34320e-04 -2.51320e-34)
(3.91755e-02 7.13025e-04 -3.90142e-31)
(3.88692e-02 7.97902e-04 -2.16985e-34)
(3.85233e-02 8.88792e-04 -4.76090e-31)
(3.81337e-02 9.85595e-04 -2.63005e-31)
(3.76912e-02 1.08820e-03 5.87985e-30)
(3.71915e-02 1.19379e-03 -8.51670e-30)
(3.68168e-02 1.27833e-03 -6.11847e-31)
(4.52017e-02 -6.71382e-05 -4.94298e-32)
(4.52820e-02 -5.85450e-05 0.00000e+00)
(4.53218e-02 -5.35300e-05 2.49771e-31)
(4.53873e-02 -4.36795e-05 2.41184e-31)
(4.54268e-02 -3.72395e-05 -5.19525e-33)
(4.54892e-02 -2.98002e-05 -3.39310e-33)
(4.55295e-02 -2.46911e-05 -1.64302e-33)
(4.55888e-02 -2.00825e-05 1.26095e-33)
(4.56290e-02 -1.66882e-05 -5.87525e-34)
(4.56857e-02 -1.43212e-05 -4.58587e-34)
(4.57263e-02 -1.23408e-05 -3.66363e-35)
(4.57812e-02 -1.15363e-05 0.00000e+00)
(4.58228e-02 -1.05758e-05 -7.62957e-35)
(4.58765e-02 -1.07832e-05 3.88680e-35)
(4.59190e-02 -1.05085e-05 6.17075e-34)
(4.59725e-02 -1.13275e-05 -1.09505e-30)
(4.60162e-02 -1.14872e-05 -2.19442e-30)
(4.60692e-02 -1.26423e-05 -1.09932e-30)
(4.61142e-02 -1.30585e-05 -1.10114e-30)
(4.61675e-02 -1.43666e-05 -1.10295e-30)
(4.62137e-02 -1.49193e-05 6.50705e-34)
(4.62672e-02 -1.62640e-05 9.07973e-34)
(4.63148e-02 -1.68751e-05 -8.43612e-34)
(4.63682e-02 -1.81866e-05 9.00748e-34)
(4.64170e-02 -1.88090e-05 2.30482e-33)
(4.64710e-02 -2.00490e-05 1.10583e-33)
(4.65207e-02 -2.06562e-05 2.24643e-30)
(4.65750e-02 -2.18074e-05 4.50447e-30)
(4.66258e-02 -2.23873e-05 2.26235e-30)
(4.66802e-02 -2.34461e-05 -2.26440e-30)
(4.67317e-02 -2.39959e-05 -1.72838e-34)
(4.67865e-02 -2.49671e-05 2.28004e-30)
(4.68390e-02 -2.54895e-05 -2.28310e-30)
(4.68940e-02 -2.63825e-05 -4.58530e-30)
(4.69473e-02 -2.68832e-05 -2.30031e-30)
(4.70025e-02 -2.77098e-05 4.45600e-33)
(4.70565e-02 -2.81960e-05 -2.20871e-33)
(4.71120e-02 -2.89687e-05 2.26677e-33)
(4.71665e-02 -2.94482e-05 2.35059e-33)
(4.72225e-02 -3.01792e-05 2.40897e-33)
(4.72772e-02 -3.06588e-05 0.00000e+00)
(4.73335e-02 -3.13587e-05 -2.54675e-33)
(4.73890e-02 -3.18448e-05 2.61773e-33)
(4.74455e-02 -3.25227e-05 4.76267e-30)
(4.75015e-02 -3.30187e-05 9.56035e-30)
(4.75582e-02 -3.36817e-05 9.59577e-30)
(4.76147e-02 -3.41902e-05 4.81470e-30)
(4.76720e-02 -3.48425e-05 2.79553e-33)
(4.77288e-02 -3.53630e-05 2.82252e-33)
(4.77862e-02 -3.60055e-05 2.83665e-33)
(4.78435e-02 -3.65345e-05 0.00000e+00)
(4.79012e-02 -3.71645e-05 -4.92447e-30)
(4.79590e-02 -3.76942e-05 -4.94165e-30)
(4.80172e-02 -3.83042e-05 2.86465e-33)
(4.80752e-02 -3.88215e-05 2.85088e-33)
(4.81337e-02 -3.93977e-05 5.01467e-30)
(4.81920e-02 -3.98832e-05 5.04045e-30)
(4.82507e-02 -4.04042e-05 -5.06260e-30)
(4.83092e-02 -4.08302e-05 -5.08967e-30)
(4.83683e-02 -4.12648e-05 2.51915e-33)
(4.84272e-02 -4.15920e-05 0.00000e+00)
(4.84862e-02 -4.18960e-05 -2.24143e-33)
(4.85450e-02 -4.20710e-05 2.06245e-33)
(4.86042e-02 -4.21827e-05 1.84753e-33)
(4.86630e-02 -4.21325e-05 1.59753e-33)
(4.87218e-02 -4.19695e-05 0.00000e+00)
(4.87805e-02 -4.15967e-05 -9.55175e-34)
(4.88388e-02 -4.10475e-05 5.47335e-34)
(4.88967e-02 -4.02242e-05 7.25832e-35)
(4.89542e-02 -3.91430e-05 -4.80803e-34)
(4.90110e-02 -3.77007e-05 0.00000e+00)
(4.90672e-02 -3.58963e-05 1.84897e-33)
(4.91225e-02 -3.36165e-05 -2.68197e-33)
(4.91767e-02 -3.08405e-05 5.58597e-30)
(4.92297e-02 -2.74407e-05 5.62580e-30)
(4.92810e-02 -2.33741e-05 0.00000e+00)
(4.93307e-02 -1.84931e-05 7.31882e-33)
(4.93782e-02 -1.27288e-05 1.14978e-29)
(4.94232e-02 -5.90765e-06 1.15803e-29)
(4.94653e-02 2.07017e-06 1.16596e-29)
(4.95040e-02 1.14098e-05 1.11021e-33)
(4.95387e-02 2.22479e-05 -1.18527e-29)
(4.95692e-02 3.48280e-05 -2.02937e-32)
(4.95945e-02 4.93295e-05 -1.20092e-29)
(4.96137e-02 6.60417e-05 -1.20821e-29)
(4.96265e-02 8.51943e-05 -3.05365e-32)
(4.96315e-02 1.07129e-04 -3.51398e-32)
(4.96277e-02 1.32130e-04 -3.99140e-32)
(4.96142e-02 1.60598e-04 1.21931e-29)
(4.95897e-02 1.92880e-04 -1.09256e-34)
(4.95525e-02 2.29436e-04 -2.44292e-29)
(4.95012e-02 2.70672e-04 -1.23417e-29)
(4.94342e-02 3.17107e-04 -1.43734e-31)
(4.93495e-02 3.69200e-04 -1.22295e-29)
(4.92450e-02 4.27510e-04 1.58785e-33)
(4.91185e-02 4.92530e-04 1.17720e-29)
(4.89675e-02 5.64835e-04 -2.19224e-31)
(4.87895e-02 6.44900e-04 -2.42119e-31)
(4.85817e-02 7.33255e-04 -2.66815e-31)
(4.83408e-02 8.30297e-04 1.03751e-29)
(4.80637e-02 9.36420e-04 1.00230e-29)
(4.77470e-02 1.05184e-03 -9.78140e-30)
(4.73870e-02 1.17669e-03 -9.08882e-30)
(4.69805e-02 1.31090e-03 7.66190e-30)
(4.65217e-02 1.45470e-03 7.66905e-30)
(4.60000e-02 1.60855e-03 9.55508e-35)
(4.54090e-02 1.77025e-03 -2.09579e-31)
(4.49715e-02 1.90493e-03 -6.08482e-31)
(5.34397e-02 -6.71770e-05 -1.70396e-31)
(5.34890e-02 -6.64347e-05 3.21705e-32)
(5.35627e-02 -5.65650e-05 1.20846e-31)
(5.36035e-02 -5.04088e-05 2.31171e-31)
(5.36742e-02 -4.11787e-05 7.68755e-31)
(5.37175e-02 -3.49598e-05 1.05816e-30)
(5.37858e-02 -2.84352e-05 1.06175e-30)
(5.38302e-02 -2.38255e-05 5.44115e-31)
(5.38960e-02 -2.00261e-05 2.18899e-33)
(5.39417e-02 -1.71476e-05 1.07746e-30)
(5.40055e-02 -1.54712e-05 1.08605e-30)
(5.40522e-02 -1.39864e-05 1.73272e-33)
(5.41150e-02 -1.37871e-05 6.37255e-34)
(5.41630e-02 -1.32994e-05 -1.64809e-33)
(5.42250e-02 -1.40484e-05 -1.09413e-30)
(5.42745e-02 -1.42201e-05 -1.09677e-30)
(5.43360e-02 -1.55282e-05 9.63815e-34)
(5.43872e-02 -1.61037e-05 2.19948e-30)
(5.44487e-02 -1.76999e-05 -9.57427e-36)
(5.45015e-02 -1.84988e-05 -4.41678e-30)
(5.45630e-02 -2.02035e-05 2.57047e-34)
(5.46175e-02 -2.11044e-05 2.21845e-30)
(5.46792e-02 -2.28046e-05 -2.54447e-34)
(5.47347e-02 -2.37310e-05 -2.22837e-30)
(5.47967e-02 -2.53610e-05 -2.23401e-30)
(5.48537e-02 -2.62680e-05 4.26830e-34)
(5.49160e-02 -2.77940e-05 -2.24586e-30)
(5.49740e-02 -2.86592e-05 -2.25178e-30)
(5.50368e-02 -3.00690e-05 -2.25673e-30)
(5.50957e-02 -3.08845e-05 -2.26505e-30)
(5.51587e-02 -3.21795e-05 -1.16017e-33)
(5.52187e-02 -3.29465e-05 1.37612e-33)
(5.52822e-02 -3.41362e-05 9.60000e-34)
(5.53430e-02 -3.48620e-05 -6.38305e-34)
(5.54065e-02 -3.59605e-05 2.92042e-33)
(5.54680e-02 -3.66545e-05 -4.61362e-30)
(5.55320e-02 -3.76772e-05 -4.63040e-30)
(5.55942e-02 -3.83505e-05 1.31400e-33)
(5.56585e-02 -3.93132e-05 -4.65983e-30)
(5.57212e-02 -3.99757e-05 -4.67947e-30)
(5.57857e-02 -4.08930e-05 0.00000e+00)
(5.58492e-02 -4.15542e-05 -1.52094e-33)
(5.59140e-02 -4.24388e-05 1.55262e-33)
(5.59780e-02 -4.31055e-05 4.34227e-33)
(5.60430e-02 -4.39670e-05 1.60744e-33)
(5.61075e-02 -4.46437e-05 0.00000e+00)
(5.61730e-02 -4.54887e-05 -1.62972e-33)
(5.62377e-02 -4.61762e-05 4.82960e-30)
(5.63037e-02 -4.70075e-05 9.68968e-30)
(5.63690e-02 -4.77027e-05 4.86772e-30)
(5.64352e-02 -4.85180e-05 -4.88905e-30)
(5.65010e-02 -4.92132e-05 -4.91260e-30)
(5.65675e-02 -5.00045e-05 1.58077e-33)
(5.66337e-02 -5.06850e-05 -1.09262e-33)
(5.67005e-02 -5.14362e-05 1.49540e-33)
(5.67670e-02 -5.20797e-05 2.40745e-33)
(5.68340e-02 -5.27657e-05 -1.34940e-33)
(5.69007e-02 -5.33387e-05 -7.87412e-34)
(5.69680e-02 -5.39225e-05 5.07157e-30)
(5.70352e-02 -5.43785e-05 1.01986e-29)
(5.71025e-02 -5.48070e-05 5.12610e-30)
(5.71697e-02 -5.50817e-05 -6.32482e-34)
(5.72370e-02 -5.52810e-05 6.88872e-35)
(5.73042e-02 -5.52870e-05 5.20987e-30)
(5.73712e-02 -5.51570e-05 5.24140e-30)
(5.74382e-02 -5.47765e-05 -5.27083e-30)
(5.75047e-02 -5.41837e-05 -1.59084e-29)
(5.75710e-02 -5.32617e-05 -1.06744e-29)
(5.76370e-02 -5.20287e-05 -1.85950e-33)
(5.77023e-02 -5.03617e-05 -2.45815e-33)
(5.77667e-02 -4.82570e-05 -6.78245e-33)
(5.78302e-02 -4.55795e-05 3.91207e-33)
(5.78927e-02 -4.23017e-05 5.29007e-33)
(5.79540e-02 -3.82712e-05 -1.77952e-32)
(5.80137e-02 -3.34332e-05 -1.11659e-29)
(5.80717e-02 -2.76105e-05 -1.12513e-29)
(5.81275e-02 -2.07165e-05 2.90210e-32)
(5.81807e-02 -1.25432e-05 1.15944e-32)
(5.82310e-02 -2.96565e-06 -1.14650e-29)
(5.82782e-02 8.26335e-06 -1.15697e-29)
(5.83212e-02 2.13135e-05 3.45277e-32)
(5.83600e-02 3.64800e-05 -1.16779e-29)
(5.83935e-02 5.39852e-05 -1.17892e-29)
(5.84210e-02 7.41810e-05 2.56595e-32)
(5.84418e-02 9.73520e-05 1.18004e-29)
(5.84550e-02 1.23916e-04 1.20008e-29)
(5.84595e-02 1.54227e-04 1.19380e-29)
(5.84540e-02 1.88779e-04 1.19609e-29)
(5.84375e-02 2.28004e-04 -1.19669e-29)
(5.84085e-02 2.72475e-04 -1.20076e-29)
(5.83650e-02 3.22707e-04 -1.18127e-29)
(5.83057e-02 3.79352e-04 -1.21196e-29)
(5.82287e-02 4.43007e-04 -6.90665e-32)
(5.81315e-02 5.14390e-04 -1.19727e-29)
(5.80123e-02 5.94162e-04 -1.14230e-29)
(5.78682e-02 6.83093e-04 1.14893e-29)
(5.76967e-02 7.81867e-04 2.21937e-29)
(5.74948e-02 8.91247e-04 1.08715e-31)
(5.72592e-02 1.01189e-03 -1.05839e-29)
(5.69868e-02 1.14448e-03 0.00000e+00)